##############################################################################
###               Crystal structure data exported by Match!                ###
##############################################################################
###                           Data published by:                           ###
###                                                                        ###
###               COD (Crystallography Open Database)
##############################################################################
data_2102652
_citation_journal_full    'Acta Crystallographica Section B'
_citation_journal_volume  '60(6)'
_citation_page_first  '669'
_citation_page_last   '673'
_citation_year  '2004'
_citation_title  'The compression mechanism of CrF~3~'
loop_
_publ_author_name
  'J\orgensen J.-E.'
  'Marshall W.G.'
  'Smith R.I.'
_chemical_formula_sum  'Cr F3'
_chemical_name_common  'Chromium Fluoride'
_symmetry_space_group_name_H-M 'R -3 c'
_space_group_IT_number 167
_space_group_crystal_system 'trigonal (hexagonal axes)'
loop_
_symmetry_equiv_pos_as_xyz
   'x, y, z'
   'x+2/3, y+1/3, z+1/3'
   'x+1/3, y+2/3, z+2/3'
   '-y, x-y, z'
   '-y+2/3, x-y+1/3, z+1/3'
   '-y+1/3, x-y+2/3, z+2/3'
   '-x+y, -x, z'
   '-x+y+2/3, -x+1/3, z+1/3'
   '-x+y+1/3, -x+2/3, z+2/3'
   'x-y, -y, -z+1/2'
   'x-y+2/3, -y+1/3, -z+5/6'
   'x-y+1/3, -y+2/3, -z+1/6'
   '-x, -x+y, -z+1/2'
   '-x+2/3, -x+y+1/3, -z+5/6'
   '-x+1/3, -x+y+2/3, -z+1/6'
   'y, x, -z+1/2'
   'y+2/3, x+1/3, -z+5/6'
   'y+1/3, x+2/3, -z+1/6'
   '-x, -y, -z'
   '-x+2/3, -y+1/3, -z+1/3'
   '-x+1/3, -y+2/3, -z+2/3'
   'y, -x+y, -z'
   'y+2/3, -x+y+1/3, -z+1/3'
   'y+1/3, -x+y+2/3, -z+2/3'
   'x-y, x, -z'
   'x-y+2/3, x+1/3, -z+1/3'
   'x-y+1/3, x+2/3, -z+2/3'
   '-x+y, y, z+1/2'
   '-x+y+2/3, y+1/3, z+5/6'
   '-x+y+1/3, y+2/3, z+1/6'
   'x, x-y, z+1/2'
   'x+2/3, x-y+1/3, z+5/6'
   'x+1/3, x-y+2/3, z+1/6'
   '-y, -x, z+1/2'
   '-y+2/3, -x+1/3, z+5/6'
   '-y+1/3, -x+2/3, z+1/6'
_cell_length_a        4.98630
_cell_length_b        4.98630
_cell_length_c       13.21420
_cell_angle_alpha    90.0000
_cell_angle_beta     90.0000
_cell_angle_gamma   120.0000
_cell_formula_units_Z 6
loop_
_atom_site_label
_atom_site_fract_x
_atom_site_fract_y
_atom_site_fract_z
_atom_site_occupancy
_atom_site_B_iso_or_equiv
cr      0.000   0.000   0.000    1.00000    0.252
f      0.615   0.000   0.250    1.00000    0.497
_cell_measurement_wavelength    1.541874
_cell_measurement_radiation   'x-rays'
_exptl_crystal_density_diffrn    3.816
loop_
_pd_peak_d_spacing
_pd_peak_intensity
     3.614697       1000.00
     2.623805        193.20
     2.493150         61.81
     2.202367          0.24
     2.169701        214.63
     2.052325         42.14
     1.807348        170.38
     1.650587        254.22
     1.619840         15.98
     1.584519        107.00
     1.542763         32.71
     1.463300         72.52
     1.439421         98.40
     1.388675          7.80
     1.311903         46.31
     1.265156         20.20
     1.263582         27.89
     1.246575         12.40
     1.234657          4.46
     1.204899          5.11
     1.199465          8.92
     1.192781          8.54
     1.178465         58.02
     1.160981         29.99
     1.127090          5.94
     1.125959         12.80
     1.101183         14.71
     1.090881          5.85
     1.084850         36.19
     1.065437         18.90
     1.027019         22.64
     1.026163          6.11
     1.011306          4.53
     1.007304          8.48
     0.987905          0.12
     0.979725          6.97
     0.969609          9.79
     0.967487          1.81
     0.950272          4.01
     0.948927         39.05
     0.942322         12.15
     0.927645          0.11
     0.922101         12.48
     0.921471          1.99
     0.903674          5.79
     0.887414         33.72
     0.877218          0.11
     0.874602         48.79
     0.866351         62.06
     0.864845          5.17
     0.862829          1.74
     0.856367          1.14
     0.849587         43.50
     0.848158          4.05
     0.836032         18.32
     0.835570         34.03
     0.831050         17.67
     0.830618          7.85
     0.825294         17.79
     0.817081         28.80
     0.816642          0.82
     0.814523          7.67
     0.811185         11.54
     0.809920         49.90
     0.793042          3.38
     0.792653         15.63
     0.792260         20.42
     0.779747         15.62
     0.777536         47.27
     0.774986         14.48
     0.774250          2.88
     0.771382        223.87
##############################################################################
###                            Comments                                    ###
##############################################################################
###   Diffraction pattern calculated by Match!. 
###   I/Ic calculated by Match!. 
##############################################################################


